REMARK  6 active torsions:
REMARK  status: ('A' for Active; 'I' for Inactive)
REMARK    1  A    between atoms: C3_3  and  C4_4 
REMARK    2  A    between atoms: C4_4  and  N1_5 
REMARK    3  A    between atoms: C5_6  and  N2_7 
REMARK    4  A    between atoms: C9_11  and  N3_12 
REMARK    5  A    between atoms: N5_19  and  C14_20 
REMARK    6  A    between atoms: C14_20  and  C15_21 
ROOT
ATOM      1  C1  UNK     1      -1.113   4.698  -0.518  1.00  0.00     0.112 C 
ATOM      2  C2  UNK     1      -1.637   3.442  -1.079  1.00  0.00    -0.109 C 
ATOM      3  C3  UNK     1      -2.055   2.440  -1.526  1.00  0.00    -0.087 C 
ENDROOT
BRANCH   3   4
ATOM      4  C4  UNK     1      -2.579   1.184  -2.087  1.00  0.00     0.225 C 
BRANCH   4   5
ATOM      5  N1  UNK     1      -2.394   0.102  -1.117  1.00  0.00    -0.303 N 
ATOM      6  C5  UNK     1      -3.297  -0.322  -0.193  1.00  0.00     0.187 A 
ATOM      7  N4  UNK     1      -2.779  -1.315   0.501  1.00  0.00    -0.199 NA
ATOM      8  C11 UNK     1      -1.544  -1.576   0.070  1.00  0.00     0.169 A 
ATOM      9  N7  UNK     1      -0.577  -2.496   0.441  1.00  0.00    -0.286 N 
ATOM     10  C12 UNK     1      -1.266  -0.694  -0.968  1.00  0.00     0.153 A 
ATOM     11  C22 UNK     1       0.610  -2.520  -0.194  1.00  0.00     0.333 A 
ATOM     12  C23 UNK     1      -0.842  -3.438   1.532  1.00  0.00     0.163 C 
ATOM     13  O2  UNK     1       1.449  -3.332   0.146  1.00  0.00    -0.246 OA
ATOM     14  N5  UNK     1       0.889  -1.672  -1.199  1.00  0.00    -0.258 N 
ATOM     15  C13 UNK     1      -0.015  -0.757  -1.606  1.00  0.00     0.282 A 
ATOM     16  O1  UNK     1       0.250   0.007  -2.518  1.00  0.00    -0.265 OA
BRANCH   6  17
ATOM     17  N2  UNK     1      -4.555   0.204  -0.011  1.00  0.00    -0.251 NA
ATOM     18  C6  UNK     1      -5.503  -0.903  -0.176  1.00  0.00     0.098 C 
ATOM     19  C7  UNK     1      -6.932  -0.395   0.020  1.00  0.00     0.017 C 
ATOM     20  C8  UNK     1      -7.080   0.159   1.441  1.00  0.00     0.037 C 
ATOM     21  C9  UNK     1      -6.013   1.234   1.669  1.00  0.00     0.231 C 
ATOM     22  C10 UNK     1      -4.632   0.641   1.387  1.00  0.00     0.134 C 
BRANCH  21  23
ATOM     23  N3  UNK     1      -6.074   1.699   3.061  1.00  0.00     0.084 N 
ATOM     24  H14 UNK     1      -6.005   0.878   3.644  1.00  0.00     0.313 HD
ATOM     25  H13 UNK     1      -6.999   2.076   3.201  1.00  0.00     0.313 HD
ENDBRANCH  21  23
ENDBRANCH   6  17
BRANCH  14  26
ATOM     26  C14 UNK     1       2.194  -1.741  -1.861  1.00  0.00     0.204 C 
BRANCH  26  27
ATOM     27  C15 UNK     1       3.165  -0.832  -1.153  1.00  0.00     0.095 A 
ATOM     28  N6  UNK     1       3.958  -1.113  -0.157  1.00  0.00    -0.243 NA
ATOM     29  C16 UNK     1       4.787  -0.199   0.389  1.00  0.00     0.077 A 
ATOM     30  C21 UNK     1       4.723   1.081  -0.206  1.00  0.00     0.035 A 
ATOM     31  C17 UNK     1       5.695  -0.351   1.461  1.00  0.00     0.075 A 
ATOM     32  S1  UNK     1       3.503   0.841  -1.473  1.00  0.00    -0.071 SA
ATOM     33  C20 UNK     1       5.495   2.134   0.220  1.00  0.00     0.024 A 
ATOM     34  C19 UNK     1       6.374   1.953   1.271  1.00  0.00     0.044 A 
ATOM     35  C18 UNK     1       6.462   0.707   1.880  1.00  0.00     0.118 A 
ATOM     36  F1  UNK     1       7.322   0.533   2.908  1.00  0.00    -0.206 F 
ENDBRANCH  26  27
ENDBRANCH  14  26
ENDBRANCH   4   5
ENDBRANCH   3   4
TORSDOF 6
